# vtk DataFile Version 2.0
result
ASCII
DATASET UNSTRUCTURED_GRID
POINTS 1364 float
0.010000 0.000000 0.100000
0.020000 0.000000 0.100000
0.030000 0.000000 0.100000
0.040000 0.000000 0.100000
0.050000 0.000000 0.100000
0.060000 0.000000 0.100000
0.070000 0.000000 0.100000
0.080000 0.000000 0.100000
0.090000 0.000000 0.100000
0.100000 0.000000 0.100000
0.110000 0.000000 0.100000
0.120000 0.000000 0.100000
0.130000 0.000000 0.100000
0.140000 0.000000 0.100000
0.150000 0.000000 0.100000
0.160000 0.000000 0.100000
0.170000 0.000000 0.100000
0.180000 0.000000 0.100000
0.190000 0.000000 0.100000
0.200000 0.000000 0.100000
0.210000 0.000000 0.100000
0.220000 0.000000 0.100000
0.230000 0.000000 0.100000
0.240000 0.000000 0.100000
0.250000 0.000000 0.100000
0.260000 0.000000 0.100000
0.270000 0.000000 0.100000
0.280000 0.000000 0.100000
0.290000 0.000000 0.100000
0.300000 0.000000 0.100000
0.300000 0.010000 0.100000
0.300000 0.020000 0.100000
0.300000 0.030000 0.100000
0.290000 0.030000 0.100000
0.280000 0.030000 0.100000
0.270000 0.030000 0.100000
0.260000 0.030000 0.100000
0.250000 0.030000 0.100000
0.240000 0.030000 0.100000
0.230000 0.030000 0.100000
0.220000 0.030000 0.100000
0.210000 0.030000 0.100000
0.200000 0.030000 0.100000
0.190000 0.030000 0.100000
0.180000 0.030000 0.100000
0.170000 0.030000 0.100000
0.160000 0.030000 0.100000
0.150000 0.030000 0.100000
0.140000 0.030000 0.100000
0.130000 0.030000 0.100000
0.120000 0.030000 0.100000
0.110000 0.030000 0.100000
0.100000 0.030000 0.100000
0.090000 0.030000 0.100000
0.080000 0.030000 0.100000
0.070000 0.030000 0.100000
0.060000 0.030000 0.100000
0.050000 0.030000 0.100000
0.040000 0.030000 0.100000
0.030000 0.030000 0.100000
0.020000 0.030000 0.100000
0.010000 0.030000 0.100000
0.000000 0.030000 0.100000
0.000000 0.020000 0.100000
0.000000 0.010000 0.100000
0.010000 0.010000 0.100000
0.020000 0.010000 0.100000
0.030000 0.010000 0.100000
0.040000 0.010000 0.100000
0.050000 0.010000 0.100000
0.060000 0.010000 0.100000
0.070000 0.010000 0.100000
0.080000 0.010000 0.100000
0.090000 0.010000 0.100000
0.100000 0.010000 0.100000
0.110000 0.010000 0.100000
0.120000 0.010000 0.100000
0.130000 0.010000 0.100000
0.140000 0.010000 0.100000
0.150000 0.010000 0.100000
0.160000 0.010000 0.100000
0.170000 0.010000 0.100000
0.180000 0.010000 0.100000
0.190000 0.010000 0.100000
0.200000 0.010000 0.100000
0.210000 0.010000 0.100000
0.220000 0.010000 0.100000
0.230000 0.010000 0.100000
0.240000 0.010000 0.100000
0.250000 0.010000 0.100000
0.260000 0.010000 0.100000
0.270000 0.010000 0.100000
0.280000 0.010000 0.100000
0.290000 0.010000 0.100000
0.010000 0.020000 0.100000
0.020000 0.020000 0.100000
0.030000 0.020000 0.100000
0.040000 0.020000 0.100000
0.050000 0.020000 0.100000
0.060000 0.020000 0.100000
0.070000 0.020000 0.100000
0.080000 0.020000 0.100000
0.090000 0.020000 0.100000
0.100000 0.020000 0.100000
0.110000 0.020000 0.100000
0.120000 0.020000 0.100000
0.130000 0.020000 0.100000
0.140000 0.020000 0.100000
0.150000 0.020000 0.100000
0.160000 0.020000 0.100000
0.170000 0.020000 0.100000
0.180000 0.020000 0.100000
0.190000 0.020000 0.100000
0.200000 0.020000 0.100000
0.210000 0.020000 0.100000
0.220000 0.020000 0.100000
0.230000 0.020000 0.100000
0.240000 0.020000 0.100000
0.250000 0.020000 0.100000
0.260000 0.020000 0.100000
0.270000 0.020000 0.100000
0.280000 0.020000 0.100000
0.290000 0.020000 0.100000
0.300000 0.000000 0.000000
0.300000 0.000000 0.010000
0.300000 0.000000 0.020000
0.300000 0.000000 0.030000
0.300000 0.000000 0.040000
0.300000 0.000000 0.050000
0.300000 0.000000 0.060000
0.300000 0.000000 0.070000
0.300000 0.000000 0.080000
0.300000 0.000000 0.090000
0.000000 0.000000 0.090000
0.000000 0.000000 0.080000
0.000000 0.000000 0.050000
0.000000 0.000000 0.040000
0.000000 0.000000 0.030000
0.000000 0.000000 0.000000
0.010000 0.000000 0.000000
0.020000 0.000000 0.000000
0.030000 0.000000 0.000000
0.040000 0.000000 0.000000
0.050000 0.000000 0.000000
0.060000 0.000000 0.000000
0.070000 0.000000 0.000000
0.080000 0.000000 0.000000
0.090000 0.000000 0.000000
0.100000 0.000000 0.000000
0.110000 0.000000 0.000000
0.120000 0.000000 0.000000
0.130000 0.000000 0.000000
0.140000 0.000000 0.000000
0.150000 0.000000 0.000000
0.160000 0.000000 0.000000
0.170000 0.000000 0.000000
0.180000 0.000000 0.000000
0.190000 0.000000 0.000000
0.200000 0.000000 0.000000
0.210000 0.000000 0.000000
0.220000 0.000000 0.000000
0.230000 0.000000 0.000000
0.240000 0.000000 0.000000
0.250000 0.000000 0.000000
0.260000 0.000000 0.000000
0.270000 0.000000 0.000000
0.280000 0.000000 0.000000
0.290000 0.000000 0.000000
0.290000 0.000000 0.010000
0.290000 0.000000 0.020000
0.290000 0.000000 0.030000
0.290000 0.000000 0.040000
0.290000 0.000000 0.050000
0.290000 0.000000 0.060000
0.290000 0.000000 0.070000
0.290000 0.000000 0.080000
0.290000 0.000000 0.090000
0.280000 0.000000 0.010000
0.280000 0.000000 0.020000
0.280000 0.000000 0.030000
0.280000 0.000000 0.040000
0.280000 0.000000 0.050000
0.280000 0.000000 0.060000
0.280000 0.000000 0.070000
0.280000 0.000000 0.080000
0.280000 0.000000 0.090000
0.270000 0.000000 0.010000
0.270000 0.000000 0.020000
0.270000 0.000000 0.030000
0.270000 0.000000 0.040000
0.270000 0.000000 0.050000
0.270000 0.000000 0.060000
0.270000 0.000000 0.070000
0.270000 0.000000 0.080000
0.270000 0.000000 0.090000
0.260000 0.000000 0.010000
0.260000 0.000000 0.020000
0.260000 0.000000 0.030000
0.260000 0.000000 0.040000
0.260000 0.000000 0.050000
0.260000 0.000000 0.060000
0.260000 0.000000 0.070000
0.260000 0.000000 0.080000
0.260000 0.000000 0.090000
0.250000 0.000000 0.010000
0.250000 0.000000 0.020000
0.250000 0.000000 0.030000
0.250000 0.000000 0.040000
0.250000 0.000000 0.050000
0.250000 0.000000 0.060000
0.250000 0.000000 0.070000
0.250000 0.000000 0.080000
0.250000 0.000000 0.090000
0.240000 0.000000 0.010000
0.240000 0.000000 0.020000
0.240000 0.000000 0.030000
0.240000 0.000000 0.040000
0.240000 0.000000 0.050000
0.240000 0.000000 0.060000
0.240000 0.000000 0.070000
0.240000 0.000000 0.080000
0.240000 0.000000 0.090000
0.230000 0.000000 0.010000
0.230000 0.000000 0.020000
0.230000 0.000000 0.030000
0.230000 0.000000 0.040000
0.230000 0.000000 0.050000
0.230000 0.000000 0.060000
0.230000 0.000000 0.070000
0.230000 0.000000 0.080000
0.230000 0.000000 0.090000
0.220000 0.000000 0.010000
0.220000 0.000000 0.020000
0.220000 0.000000 0.030000
0.220000 0.000000 0.040000
0.220000 0.000000 0.050000
0.220000 0.000000 0.060000
0.220000 0.000000 0.070000
0.220000 0.000000 0.080000
0.220000 0.000000 0.090000
0.210000 0.000000 0.010000
0.210000 0.000000 0.020000
0.210000 0.000000 0.030000
0.210000 0.000000 0.040000
0.210000 0.000000 0.050000
0.210000 0.000000 0.060000
0.210000 0.000000 0.070000
0.210000 0.000000 0.080000
0.210000 0.000000 0.090000
0.200000 0.000000 0.010000
0.200000 0.000000 0.020000
0.200000 0.000000 0.030000
0.200000 0.000000 0.040000
0.200000 0.000000 0.050000
0.200000 0.000000 0.060000
0.200000 0.000000 0.070000
0.200000 0.000000 0.080000
0.200000 0.000000 0.090000
0.190000 0.000000 0.010000
0.190000 0.000000 0.020000
0.190000 0.000000 0.030000
0.190000 0.000000 0.040000
0.190000 0.000000 0.050000
0.190000 0.000000 0.060000
0.190000 0.000000 0.070000
0.190000 0.000000 0.080000
0.190000 0.000000 0.090000
0.180000 0.000000 0.010000
0.180000 0.000000 0.020000
0.180000 0.000000 0.030000
0.180000 0.000000 0.040000
0.180000 0.000000 0.050000
0.180000 0.000000 0.060000
0.180000 0.000000 0.070000
0.180000 0.000000 0.080000
0.180000 0.000000 0.090000
0.170000 0.000000 0.010000
0.170000 0.000000 0.020000
0.170000 0.000000 0.030000
0.170000 0.000000 0.040000
0.170000 0.000000 0.050000
0.170000 0.000000 0.060000
0.170000 0.000000 0.070000
0.170000 0.000000 0.080000
0.170000 0.000000 0.090000
0.160000 0.000000 0.010000
0.160000 0.000000 0.020000
0.160000 0.000000 0.030000
0.160000 0.000000 0.040000
0.160000 0.000000 0.050000
0.160000 0.000000 0.060000
0.160000 0.000000 0.070000
0.160000 0.000000 0.080000
0.160000 0.000000 0.090000
0.150000 0.000000 0.010000
0.150000 0.000000 0.020000
0.150000 0.000000 0.030000
0.150000 0.000000 0.040000
0.150000 0.000000 0.050000
0.150000 0.000000 0.060000
0.150000 0.000000 0.070000
0.150000 0.000000 0.080000
0.150000 0.000000 0.090000
0.140000 0.000000 0.010000
0.140000 0.000000 0.020000
0.140000 0.000000 0.030000
0.140000 0.000000 0.040000
0.140000 0.000000 0.050000
0.140000 0.000000 0.060000
0.140000 0.000000 0.070000
0.140000 0.000000 0.080000
0.140000 0.000000 0.090000
0.130000 0.000000 0.010000
0.130000 0.000000 0.020000
0.130000 0.000000 0.030000
0.130000 0.000000 0.040000
0.130000 0.000000 0.050000
0.130000 0.000000 0.060000
0.130000 0.000000 0.070000
0.130000 0.000000 0.080000
0.130000 0.000000 0.090000
0.120000 0.000000 0.010000
0.120000 0.000000 0.020000
0.120000 0.000000 0.030000
0.120000 0.000000 0.040000
0.120000 0.000000 0.050000
0.120000 0.000000 0.060000
0.120000 0.000000 0.070000
0.120000 0.000000 0.080000
0.120000 0.000000 0.090000
0.110000 0.000000 0.010000
0.110000 0.000000 0.020000
0.110000 0.000000 0.030000
0.110000 0.000000 0.040000
0.110000 0.000000 0.050000
0.110000 0.000000 0.060000
0.110000 0.000000 0.070000
0.110000 0.000000 0.080000
0.110000 0.000000 0.090000
0.100000 0.000000 0.010000
0.100000 0.000000 0.020000
0.100000 0.000000 0.030000
0.100000 0.000000 0.040000
0.100000 0.000000 0.050000
0.100000 0.000000 0.060000
0.100000 0.000000 0.070000
0.100000 0.000000 0.080000
0.100000 0.000000 0.090000
0.090000 0.000000 0.010000
0.090000 0.000000 0.020000
0.090000 0.000000 0.030000
0.090000 0.000000 0.040000
0.090000 0.000000 0.050000
0.090000 0.000000 0.060000
0.090000 0.000000 0.070000
0.090000 0.000000 0.080000
0.090000 0.000000 0.090000
0.080000 0.000000 0.010000
0.080000 0.000000 0.020000
0.080000 0.000000 0.030000
0.080000 0.000000 0.040000
0.080000 0.000000 0.050000
0.080000 0.000000 0.060000
0.080000 0.000000 0.070000
0.080000 0.000000 0.080000
0.080000 0.000000 0.090000
0.070000 0.000000 0.010000
[...]
POINT_DATA 1364
VECTORS displacement float
-0.000762 -0.000107 0.000526
-0.001542 -0.000657 0.000726
-0.002328 -0.001847 0.000841
-0.003108 -0.003614 0.000903
-0.003868 -0.005931 0.000935
-0.004602 -0.008771 0.000946
-0.005307 -0.012108 0.000942
-0.005983 -0.015917 0.000927
-0.006628 -0.020175 0.000903
-0.007243 -0.024859 0.000874
-0.007828 -0.029947 0.000840
-0.008383 -0.035419 0.000803
-0.008907 -0.041253 0.000763
-0.009402 -0.047428 0.000722
-0.009866 -0.053924 0.000679
-0.010301 -0.060721 0.000636
-0.010705 -0.067797 0.000592
-0.011080 -0.075134 0.000548
-0.011424 -0.082710 0.000504
-0.011739 -0.090506 0.000460
-0.012023 -0.098502 0.000416
-0.012278 -0.106676 0.000372
-0.012503 -0.115010 0.000329
-0.012698 -0.123482 0.000287
-0.012863 -0.132073 0.000247
-0.013000 -0.140762 0.000209
-0.013106 -0.149529 0.000173
-0.013181 -0.158352 0.000144
-0.013219 -0.167198 0.000125
-0.013229 -0.176028 0.000121
-0.004421 -0.176036 0.000063
0.004374 -0.176077 0.000015
0.013258 -0.176177 -0.000049
0.013219 -0.167196 -0.000105
0.013168 -0.158340 -0.000139
0.013093 -0.149522 -0.000173
0.012991 -0.140759 -0.000209
0.012858 -0.132072 -0.000248
0.012695 -0.123482 -0.000289
0.012501 -0.115010 -0.000331
0.012277 -0.106676 -0.000373
0.012023 -0.098502 -0.000417
0.011738 -0.090506 -0.000460
0.011424 -0.082710 -0.000504
0.011080 -0.075134 -0.000549
0.010705 -0.067797 -0.000593
0.010301 -0.060721 -0.000636
0.009866 -0.053924 -0.000679
0.009402 -0.047428 -0.000722
0.008907 -0.041253 -0.000763
0.008383 -0.035419 -0.000803
0.007828 -0.029947 -0.000840
0.007243 -0.024859 -0.000874
0.006628 -0.020175 -0.000903
0.005983 -0.015917 -0.000927
0.005307 -0.012108 -0.000942
0.004602 -0.008771 -0.000946
0.003868 -0.005931 -0.000935
0.003108 -0.003614 -0.000903
0.002328 -0.001847 -0.000841
0.001542 -0.000657 -0.000726
0.000762 -0.000107 -0.000526
0.000000 0.000000 0.000000
0.000000 0.000000 0.000000
0.000000 0.000000 0.000000
-0.000279 0.000092 0.000179
-0.000540 -0.000502 0.000245
-0.000788 -0.001690 0.000280
-0.001040 -0.003461 0.000301
-0.001288 -0.005783 0.000311
-0.001529 -0.008628 0.000314
-0.001761 -0.011971 0.000313
-0.001985 -0.015786 0.000307
-0.002198 -0.020050 0.000300
-0.002402 -0.024740 0.000290
-0.002597 -0.029835 0.000278
-0.002781 -0.035312 0.000266
-0.002955 -0.041152 0.000253
-0.003120 -0.047333 0.000239
-0.003275 -0.053835 0.000225
-0.003419 -0.060638 0.000211
-0.003554 -0.067720 0.000196
-0.003679 -0.075063 0.000182
-0.003794 -0.082645 0.000167
-0.003899 -0.090447 0.000152
-0.003994 -0.098448 0.000137
-0.004079 -0.106629 0.000123
-0.004154 -0.114968 0.000109
-0.004220 -0.123447 0.000095
-0.004276 -0.132043 0.000081
-0.004323 -0.140737 0.000069
-0.004361 -0.149509 0.000059
-0.004393 -0.158338 0.000053
-0.004415 -0.167197 0.000054
0.000279 0.000092 -0.000179
0.000540 -0.000502 -0.000245
0.000788 -0.001690 -0.000280
0.001040 -0.003461 -0.000300
0.001288 -0.005783 -0.000311
0.001529 -0.008628 -0.000314
0.001761 -0.011971 -0.000313
0.001985 -0.015786 -0.000307
0.002198 -0.020050 -0.000300
0.002402 -0.024740 -0.000290
0.002597 -0.029835 -0.000278
0.002781 -0.035312 -0.000266
0.002955 -0.041152 -0.000253
0.003120 -0.047333 -0.000239
0.003275 -0.053835 -0.000225
0.003419 -0.060638 -0.000211
0.003554 -0.067720 -0.000196
0.003679 -0.075063 -0.000182
0.003794 -0.082645 -0.000167
0.003899 -0.090447 -0.000153
0.003993 -0.098448 -0.000138
0.004078 -0.106629 -0.000124
0.004153 -0.114968 -0.000110
0.004217 -0.123446 -0.000096
0.004271 -0.132043 -0.000083
0.004315 -0.140736 -0.000069
0.004347 -0.149506 -0.000056
0.004367 -0.158331 -0.000040
0.004368 -0.167200 -0.000020
-0.013229 -0.176028 -0.000121
-0.013227 -0.176094 -0.000114
-0.013221 -0.176159 -0.000097
-0.013216 -0.176211 -0.000070
-0.013213 -0.176244 -0.000036
-0.013212 -0.176255 -0.000000
-0.013213 -0.176244 0.000036
-0.013216 -0.176211 0.000070
-0.013221 -0.176159 0.000097
-0.013227 -0.176094 0.000114
0.000000 0.000000 0.000000
0.000000 0.000000 0.000000
0.000000 0.000000 0.000000
0.000000 0.000000 0.000000
0.000000 0.000000 0.000000
0.000000 0.000000 0.000000
-0.000762 -0.000107 -0.000526
-0.001542 -0.000657 -0.000726
-0.002328 -0.001847 -0.000841
-0.003108 -0.003614 -0.000903
-0.003868 -0.005931 -0.000935
-0.004602 -0.008771 -0.000946
-0.005307 -0.012108 -0.000942
-0.005983 -0.015917 -0.000927
-0.006628 -0.020175 -0.000903
-0.007243 -0.024859 -0.000874
-0.007828 -0.029947 -0.000840
-0.008383 -0.035419 -0.000803
-0.008907 -0.041253 -0.000763
-0.009402 -0.047428 -0.000722
-0.009866 -0.053924 -0.000679
-0.010301 -0.060721 -0.000636
-0.010705 -0.067797 -0.000592
-0.011080 -0.075134 -0.000548
-0.011424 -0.082710 -0.000504
-0.011739 -0.090506 -0.000460
-0.012023 -0.098502 -0.000416
-0.012278 -0.106676 -0.000372
-0.012503 -0.115010 -0.000329
-0.012698 -0.123482 -0.000287
-0.012863 -0.132073 -0.000247
-0.013000 -0.140762 -0.000209
-0.013106 -0.149529 -0.000173
-0.013181 -0.158352 -0.000144
-0.013219 -0.167198 -0.000125
-0.013217 -0.167269 -0.000114
-0.013208 -0.167337 -0.000096
-0.013200 -0.167391 -0.000069
-0.013196 -0.167425 -0.000036
-0.013194 -0.167437 -0.000000
-0.013196 -0.167425 0.000036
-0.013200 -0.167391 0.000069
-0.013208 -0.167337 0.000096
-0.013217 -0.167269 0.000114
-0.013182 -0.158438 -0.000125
-0.013170 -0.158513 -0.000102
-0.013159 -0.158572 -0.000072
-0.013153 -0.158609 -0.000037
-0.013151 -0.158621 -0.000000
-0.013153 -0.158609 0.000037
-0.013159 -0.158572 0.000072
-0.013170 -0.158513 0.000102
-0.013182 -0.158438 0.000125
-0.013111 -0.149634 -0.000145
-0.013097 -0.149722 -0.000115
-0.013084 -0.149788 -0.000079
-0.013076 -0.149829 -0.000041
-0.013074 -0.149843 -0.000000
-0.013076 -0.149829 0.000041
-0.013084 -0.149788 0.000079
-0.013097 -0.149722 0.000115
-0.013111 -0.149634 0.000145
-0.013006 -0.140889 -0.000171
-0.012992 -0.140991 -0.000132
-0.012978 -0.141067 -0.000090
-0.012968 -0.141113 -0.000046
-0.012965 -0.141129 -0.000000
-0.012968 -0.141113 0.000046
-0.012978 -0.141067 0.000090
-0.012992 -0.140991 0.000132
-0.013006 -0.140889 0.000171
-0.012871 -0.132223 -0.000200
-0.012857 -0.132342 -0.000153
-0.012841 -0.132429 -0.000103
-0.012831 -0.132482 -0.000052
-0.012827 -0.132499 0.000000
-0.012831 -0.132482 0.000052
-0.012841 -0.132429 0.000103
-0.012857 -0.132342 0.000153
-0.012871 -0.132223 0.000200
-0.012706 -0.123656 -0.000231
-0.012691 -0.123793 -0.000175
-0.012675 -0.123892 -0.000118
-0.012665 -0.123952 -0.000059
-0.012661 -0.123972 0.000000
-0.012665 -0.123952 0.000059
-0.012675 -0.123892 0.000118
-0.012691 -0.123793 0.000175
-0.012706 -0.123656 0.000231
-0.012512 -0.115209 -0.000264
-0.012496 -0.115364 -0.000199
-0.012480 -0.115476 -0.000134
-0.012469 -0.115544 -0.000067
-0.012465 -0.115567 0.000000
-0.012469 -0.115544 0.000067
-0.012480 -0.115476 0.000134
-0.012496 -0.115364 0.000199
-0.012512 -0.115209 0.000264
-0.012287 -0.106901 -0.000298
-0.012271 -0.107076 -0.000224
-0.012255 -0.107201 -0.000150
-0.012243 -0.107277 -0.000075
-0.012239 -0.107302 0.000000
-0.012243 -0.107277 0.000075
-0.012255 -0.107201 0.000150
-0.012271 -0.107076 0.000224
-0.012287 -0.106901 0.000298
-0.012033 -0.098752 -0.000333
-0.012017 -0.098947 -0.000250
-0.012000 -0.099086 -0.000167
-0.011988 -0.099170 -0.000084
-0.011984 -0.099198 0.000000
-0.011988 -0.099170 0.000084
-0.012000 -0.099086 0.000167
-0.012017 -0.098947 0.000250
-0.012033 -0.098752 0.000333
-0.011748 -0.090783 -0.000368
-0.011732 -0.090998 -0.000276
-0.011715 -0.091151 -0.000184
-0.011703 -0.091244 -0.000092
-0.011699 -0.091274 0.000000
-0.011703 -0.091244 0.000092
-0.011715 -0.091151 0.000184
-0.011732 -0.090998 0.000276
-0.011748 -0.090783 0.000368
-0.011434 -0.083013 -0.000403
-0.011417 -0.083248 -0.000302
-0.011400 -0.083416 -0.000201
-0.011389 -0.083517 -0.000101
-0.011385 -0.083551 0.000000
-0.011389 -0.083517 0.000101
-0.011400 -0.083416 0.000201
-0.011417 -0.083248 0.000302
-0.011434 -0.083013 0.000403
-0.011089 -0.075463 -0.000438
-0.011073 -0.075718 -0.000328
-0.011056 -0.075901 -0.000219
-0.011045 -0.076010 -0.000109
-0.011041 -0.076046 0.000000
-0.011045 -0.076010 0.000109
-0.011056 -0.075901 0.000219
-0.011073 -0.075718 0.000328
-0.011089 -0.075463 0.000438
-0.010715 -0.068153 -0.000473
-0.010699 -0.068428 -0.000354
-0.010682 -0.068625 -0.000236
-0.010671 -0.068743 -0.000118
-0.010667 -0.068782 0.000000
-0.010671 -0.068743 0.000118
-0.010682 -0.068625 0.000236
-0.010699 -0.068428 0.000354
-0.010715 -0.068153 0.000473
-0.010310 -0.061102 -0.000507
-0.010294 -0.061398 -0.000380
-0.010278 -0.061608 -0.000253
-0.010267 -0.061734 -0.000126
-0.010263 -0.061776 0.000000
-0.010267 -0.061734 0.000126
-0.010278 -0.061608 0.000253
-0.010294 -0.061398 0.000380
-0.010310 -0.061102 0.000507
-0.009876 -0.054331 -0.000542
-0.009860 -0.054646 -0.000405
-0.009844 -0.054871 -0.000269
-0.009833 -0.055005 -0.000134
-0.009830 -0.055050 0.000000
-0.009833 -0.055005 0.000134
-0.009844 -0.054871 0.000269
-0.009860 -0.054646 0.000405
-0.009876 -0.054331 0.000542
-0.009411 -0.047860 -0.000575
-0.009396 -0.048194 -0.000429
-0.009381 -0.048432 -0.000285
-0.009371 -0.048574 -0.000142
-0.009367 -0.048622 0.000000
-0.009371 -0.048574 0.000142
-0.009381 -0.048432 0.000285
-0.009396 -0.048194 0.000429
-0.009411 -0.047860 0.000575
-0.008916 -0.041710 -0.000607
-0.008902 -0.042062 -0.000453
-0.008888 -0.042312 -0.000301
-0.008878 -0.042462 -0.000150
-0.008875 -0.042511 0.000000
-0.008878 -0.042462 0.000150
-0.008888 -0.042312 0.000301
-0.008902 -0.042062 0.000453
-0.008916 -0.041710 0.000607
-0.008391 -0.035899 -0.000637
-0.008379 -0.036268 -0.000475
-0.008366 -0.036530 -0.000315
-0.008357 -0.036686 -0.000157
-0.008354 -0.036738 -0.000000
-0.008357 -0.036686 0.000157
-0.008366 -0.036530 0.000315
-0.008379 -0.036268 0.000475
-0.008391 -0.035899 0.000637
-0.007836 -0.030449 -0.000666
-0.007825 -0.030833 -0.000495
-0.007814 -0.031106 -0.000327
-0.007807 -0.031268 -0.000163
-0.007804 -0.031322 -0.000000
-0.007807 -0.031268 0.000163
-0.007814 -0.031106 0.000327
-0.007825 -0.030833 0.000495
-0.007836 -0.030449 0.000666
-0.007251 -0.025379 -0.000691
-0.007242 -0.025777 -0.000512
-0.007233 -0.026058 -0.000338
-0.007228 -0.026225 -0.000168
-0.007226 -0.026280 -0.000000
-0.007228 -0.026225 0.000168
-0.007233 -0.026058 0.000338
-0.007242 -0.025777 0.000512
-0.007251 -0.025379 0.000691
-0.006635 -0.020712 -0.000711
-0.006630 -0.021120 -0.000525
-0.006624 -0.021406 -0.000345
-0.006621 -0.021576 -0.000171
-0.006620 -0.021632 -0.000000
-0.006621 -0.021576 0.000171
-0.006624 -0.021406 0.000345
-0.006630 -0.021120 0.000525
-0.006635 -0.020712 0.000711
-0.005989 -0.016466 -0.000726
-0.005987 -0.016880 -0.000533
-0.005987 -0.017169 -0.000348
-0.005987 -0.017339 -0.000172
-0.005987 -0.017395 -0.000000
-0.005987 -0.017339 0.000172
-0.005987 -0.017169 0.000348
-0.005987 -0.016880 0.000533
-0.005989 -0.016466 0.000726
-0.005312 -0.012663 -0.000733
-0.005316 -0.013078 -0.000533
-0.005322 -0.013364 -0.000346
-0.005327 -0.013532 -0.000170
-0.005329 -0.013587 -0.000000
-0.005327 -0.013532 0.000170
-0.005322 -0.013364 0.000346
-0.005316 -0.013078 0.000533
-0.005312 -0.012663 0.000733
-0.004605 -0.009325 -0.000729
-0.004616 -0.009732 -0.000524
-0.004630 -0.010009 -0.000337
-0.004641 -0.010170 -0.000165
-0.004645 -0.010222 -0.000000
-0.004641 -0.010170 0.000165
-0.004630 -0.010009 0.000337
-0.004616 -0.009732 0.000524
-0.004605 -0.009325 0.000729
-0.003868 -0.006473 -0.000710
-0.003888 -0.006862 -0.000503
-0.003912 -0.007121 -0.000319
-0.003930 -0.007268 -0.000154
-0.003937 -0.007316 -0.000000
-0.003930 -0.007268 0.000154
-0.003912 -0.007121 0.000319
-0.003888 -0.006862 0.000503
-0.003868 -0.006473 0.000710
-0.003103 -0.004129 -0.000672
-0.003134 -0.004486 -0.000465
-0.003170 -0.004715 -0.000289
-0.003196 -0.004841 -0.000138
-0.003205 -0.004882 -0.000000
-0.003196 -0.004841 0.000138
-0.003170 -0.004715 0.000289
-0.003134 -0.004486 0.000465
-0.003103 -0.004129 0.000672
-0.002312 -0.002314 -0.000608
-0.002355 -0.002619 -0.000406
-0.002402 -0.002804 -0.000244
-0.002436 -0.002903 -0.000114
-0.002447 -0.002934 -0.000000
-0.002436 -0.002903 0.000114
-0.002402 -0.002804 0.000244
-0.002355 -0.002619 0.000405
-0.002312 -0.002314 0.000608
-0.001502 -0.001047 -0.000502
-0.001555 -0.001273 -0.000315
-0.001613 -0.001401 -0.000185
-0.001648 -0.001465 -0.000085
-0.001660 -0.001485 -0.000000
-0.001648 -0.001465 0.000085
-0.001613 -0.001401 0.000185
-0.001555 -0.001273 0.000315
-0.001502 -0.001047 0.000502
-0.000687 -0.000348 -0.000310
-0.000756 -0.000473 -0.000190
-0.000801 -0.000536 -0.000109
-0.000828 -0.000567 -0.000050
-0.000836 -0.000576 -0.000000
-0.000828 -0.000567 0.000050
-0.000801 -0.000536 0.000109
-0.000756 -0.000473 0.000190
-0.000687 -0.000348 0.000310
0.000000 0.000000 0.000000
0.000000 0.000000 0.000000
0.000000 0.000000 0.000000
0.013285 -0.176246 -0.000067
0.013287 -0.176309 -0.000067
0.013285 -0.176358 -0.000051
0.013283 -0.176390 -0.000028
0.013282 -0.176400 0.000000
0.013283 -0.176390 0.000028
0.013285 -0.176358 0.000051
0.013287 -0.176309 0.000067
0.013285 -0.176246 0.000067
0.013258 -0.176176 0.000049
0.013219 -0.167196 0.000105
0.013168 -0.158340 0.000139
0.013093 -0.149522 0.000173
0.012991 -0.140759 0.000209
0.012858 -0.132072 0.000248
0.012695 -0.123482 0.000289
0.012501 -0.115010 0.000331
0.012277 -0.106676 0.000373
0.012023 -0.098502 0.000417
0.011738 -0.090506 0.000460
0.011424 -0.082710 0.000504
0.011080 -0.075134 0.000549
0.010705 -0.067797 0.000593
0.010301 -0.060721 0.000636
0.009866 -0.053924 0.000679
0.009402 -0.047428 0.000722
0.008907 -0.041253 0.000763
0.008383 -0.035419 0.000803
0.007828 -0.029947 0.000840
0.007243 -0.024859 0.000874
0.006628 -0.020175 0.000903
0.005983 -0.015917 0.000927
0.005307 -0.012108 0.000942
0.004602 -0.008771 0.000946
0.003868 -0.005931 0.000935
0.003108 -0.003614 0.000903
0.002328 -0.001847 0.000841
0.001542 -0.000657 0.000726
0.000762 -0.000107 0.000526
0.000687 -0.000348 0.000310
0.000756 -0.000473 0.000190
0.000801 -0.000536 0.000109
0.000828 -0.000567 0.000050
0.000836 -0.000576 0.000000
0.000828 -0.000567 -0.000050
0.000801 -0.000536 -0.000109
0.000756 -0.000473 -0.000190
0.000687 -0.000348 -0.000310
0.001502 -0.001047 0.000502
0.001555 -0.001273 0.000315
0.001613 -0.001401 0.000185
0.001648 -0.001465 0.000085
0.001660 -0.001485 0.000000
0.001648 -0.001465 -0.000085
0.001613 -0.001401 -0.000185
0.001555 -0.001273 -0.000315
0.001502 -0.001047 -0.000502
0.002312 -0.002314 0.000608
0.002355 -0.002619 0.000406
0.002402 -0.002804 0.000244
0.002436 -0.002903 0.000114
0.002447 -0.002934 0.000000
0.002436 -0.002903 -0.000114
0.002402 -0.002804 -0.000244
0.002355 -0.002619 -0.000405
0.002312 -0.002314 -0.000608
0.003103 -0.004129 0.000672
0.003134 -0.004486 0.000465
0.003170 -0.004715 0.000289
0.003196 -0.004841 0.000138
0.003205 -0.004882 0.000000
0.003196 -0.004841 -0.000138
0.003170 -0.004715 -0.000289
0.003134 -0.004486 -0.000465
0.003103 -0.004129 -0.000672
0.003868 -0.006473 0.000710
0.003888 -0.006862 0.000503
0.003912 -0.007121 0.000319
0.003930 -0.007268 0.000154
0.003937 -0.007316 0.000000
0.003930 -0.007268 -0.000154
0.003912 -0.007121 -0.000319
0.003888 -0.006862 -0.000503
0.003868 -0.006473 -0.000710
0.004605 -0.009325 0.000729
0.004616 -0.009732 0.000524
0.004630 -0.010009 0.000337
0.004641 -0.010170 0.000165
0.004645 -0.010222 0.000000
0.004641 -0.010170 -0.000165
0.004630 -0.010009 -0.000337
0.004616 -0.009732 -0.000524
0.004605 -0.009325 -0.000729
0.005312 -0.012663 0.000733
0.005316 -0.013078 0.000533
0.005322 -0.013364 0.000346
0.005327 -0.013532 0.000170
0.005329 -0.013587 0.000000
0.005327 -0.013532 -0.000170
0.005322 -0.013364 -0.000346
0.005316 -0.013078 -0.000533
0.005312 -0.012663 -0.000733
0.005989 -0.016466 0.000726
0.005987 -0.016880 0.000533
0.005987 -0.017169 0.000348
0.005987 -0.017339 0.000172
0.005987 -0.017395 0.000000
0.005987 -0.017339 -0.000172
0.005987 -0.017169 -0.000348
0.005987 -0.016880 -0.000533
0.005989 -0.016466 -0.000726
0.006635 -0.020712 0.000711
0.006630 -0.021120 0.000525
0.006624 -0.021406 0.000345
0.006621 -0.021576 0.000171
0.006620 -0.021632 0.000000
0.006621 -0.021576 -0.000171
0.006624 -0.021406 -0.000345
0.006630 -0.021120 -0.000525
0.006635 -0.020712 -0.000711
0.007251 -0.025379 0.000691
0.007242 -0.025777 0.000512
0.007233 -0.026058 0.000338
0.007228 -0.026225 0.000168
0.007226 -0.026280 0.000000
0.007228 -0.026225 -0.000168
0.007233 -0.026058 -0.000338
0.007242 -0.025777 -0.000512
0.007251 -0.025379 -0.000691
0.007836 -0.030449 0.000666
0.007825 -0.030833 0.000495
0.007814 -0.031106 0.000327
0.007807 -0.031268 0.000163
0.007804 -0.031322 0.000000
0.007807 -0.031268 -0.000163
0.007814 -0.031106 -0.000327
0.007825 -0.030833 -0.000495
0.007836 -0.030449 -0.000666
0.008391 -0.035899 0.000637
0.008379 -0.036268 0.000475
0.008366 -0.036530 0.000315
0.008357 -0.036686 0.000157
0.008354 -0.036738 0.000000
0.008357 -0.036686 -0.000157
0.008366 -0.036530 -0.000315
0.008379 -0.036268 -0.000475
0.008391 -0.035899 -0.000637
0.008916 -0.041710 0.000607
0.008902 -0.042062 0.000453
0.008888 -0.042312 0.000301
0.008878 -0.042462 0.000150
0.008875 -0.042511 -0.000000
0.008878 -0.042462 -0.000150
0.008888 -0.042312 -0.000301
0.008902 -0.042062 -0.000453
0.008916 -0.041710 -0.000607
0.009411 -0.047860 0.000575
0.009396 -0.048194 0.000429
0.009381 -0.048432 0.000285
0.009370 -0.048574 0.000142
0.009367 -0.048622 -0.000000
0.009370 -0.048574 -0.000142
0.009381 -0.048432 -0.000285
0.009396 -0.048194 -0.000429
0.009411 -0.047860 -0.000575
0.009876 -0.054331 0.000542
0.009860 -0.054646 0.000405
0.009844 -0.054871 0.000269
0.009833 -0.055005 0.000134
0.009830 -0.055050 -0.000000
0.009833 -0.055005 -0.000134
0.009844 -0.054871 -0.000269
0.009860 -0.054646 -0.000405
0.009876 -0.054331 -0.000542
0.010310 -0.061102 0.000508
0.010294 -0.061398 0.000380
0.010278 -0.061608 0.000253
0.010267 -0.061734 0.000126
0.010263 -0.061776 -0.000000
0.010267 -0.061734 -0.000126
0.010278 -0.061608 -0.000253
0.010294 -0.061398 -0.000380
0.010310 -0.061102 -0.000508
0.010715 -0.068153 0.000473
0.010699 -0.068428 0.000354
0.010682 -0.068625 0.000236
0.010671 -0.068743 0.000118
0.010667 -0.068782 -0.000000
0.010671 -0.068743 -0.000118
0.010682 -0.068625 -0.000236
0.010699 -0.068428 -0.000354
0.010715 -0.068153 -0.000473
0.011089 -0.075463 0.000438
0.011073 -0.075718 0.000328
0.011056 -0.075901 0.000219
0.011045 -0.076010 0.000109
0.011041 -0.076046 -0.000000
0.011045 -0.076010 -0.000109
0.011056 -0.075901 -0.000219
0.011073 -0.075718 -0.000328
0.011089 -0.075463 -0.000438
0.011433 -0.083013 0.000403
0.011417 -0.083248 0.000303
0.011400 -0.083416 0.000202
0.011389 -0.083517 0.000101
0.011385 -0.083550 -0.000000
0.011389 -0.083517 -0.000101
0.011400 -0.083416 -0.000202
0.011417 -0.083248 -0.000303
0.011433 -0.083013 -0.000403
0.011748 -0.090783 0.000368
0.011732 -0.090997 0.000277
0.011715 -0.091151 0.000185
0.011704 -0.091243 0.000092
0.011700 -0.091274 -0.000000
0.011704 -0.091243 -0.000092
0.011715 -0.091151 -0.000185
0.011732 -0.090997 -0.000277
0.011748 -0.090783 -0.000368
0.012032 -0.098752 0.000334
0.012017 -0.098947 0.000251
0.012000 -0.099086 0.000168
0.011989 -0.099170 0.000084
0.011985 -0.099198 -0.000000
0.011989 -0.099170 -0.000084
0.012000 -0.099086 -0.000168
0.012017 -0.098947 -0.000251
0.012032 -0.098752 -0.000334
0.012286 -0.106900 0.000300
0.012271 -0.107075 0.000226
0.012255 -0.107201 0.000151
0.012244 -0.107277 0.000076
0.012241 -0.107302 -0.000000
0.012244 -0.107277 -0.000076
0.012255 -0.107201 -0.000151
0.012271 -0.107075 -0.000226
0.012286 -0.106900 -0.000300
0.012510 -0.115208 0.000266
0.012496 -0.115364 0.000201
0.012481 -0.115476 0.000135
0.012471 -0.115544 0.000068
0.012467 -0.115567 -0.000000
0.012471 -0.115544 -0.000068
0.012481 -0.115476 -0.000135
0.012496 -0.115364 -0.000201
0.012510 -0.115208 -0.000266
0.012704 -0.123656 0.000234
0.012691 -0.123793 0.000177
0.012677 -0.123892 0.000119
0.012667 -0.123952 0.000060
0.012664 -0.123972 -0.000000
0.012667 -0.123952 -0.000060
0.012677 -0.123892 -0.000119
0.012691 -0.123793 -0.000177
0.012704 -0.123656 -0.000234
0.012868 -0.132222 0.000202