# vtk DataFile Version 2.0
result
ASCII
DATASET UNSTRUCTURED_GRID
POINTS 64 float
-0.050000 -0.050000 0.100000
-0.016667 -0.050000 0.100000
0.016667 -0.050000 0.100000
0.050000 -0.050000 0.100000
0.050000 -0.016667 0.100000
0.050000 0.016667 0.100000
0.050000 0.050000 0.100000
0.016667 0.050000 0.100000
-0.016667 0.050000 0.100000
-0.050000 0.050000 0.100000
-0.050000 0.016667 0.100000
-0.050000 -0.016667 0.100000
-0.016667 -0.016667 0.100000
0.016667 -0.016667 0.100000
-0.016667 0.016667 0.100000
0.016667 0.016667 0.100000
0.050000 -0.050000 0.000000
0.050000 -0.050000 0.033333
0.050000 -0.050000 0.066667
-0.050000 -0.050000 0.066667
-0.050000 -0.050000 0.033333
-0.050000 -0.050000 0.000000
-0.016667 -0.050000 0.000000
0.016667 -0.050000 0.000000
0.016667 -0.050000 0.033333
0.016667 -0.050000 0.066667
-0.016667 -0.050000 0.033333
-0.016667 -0.050000 0.066667
-0.050000 0.050000 0.066667
-0.050000 0.050000 0.033333
-0.050000 0.050000 0.000000
-0.050000 0.016667 0.000000
-0.050000 -0.016667 0.000000
-0.050000 -0.016667 0.033333
-0.050000 -0.016667 0.066667
-0.050000 0.016667 0.033333
-0.050000 0.016667 0.066667
0.050000 0.050000 0.066667
0.050000 0.050000 0.033333
0.050000 0.050000 0.000000
0.016667 0.050000 0.000000
-0.016667 0.050000 0.000000
-0.016667 0.050000 0.033333
-0.016667 0.050000 0.066667
0.016667 0.050000 0.033333
0.016667 0.050000 0.066667
0.050000 0.016667 0.000000
0.050000 -0.016667 0.000000
0.016667 0.016667 0.000000
0.016667 -0.016667 0.000000
-0.016667 0.016667 0.000000
-0.016667 -0.016667 0.000000
0.050000 -0.016667 0.033333
0.050000 0.016667 0.033333
0.050000 -0.016667 0.066667
0.050000 0.016667 0.066667
-0.016667 -0.016667 0.066667
0.016667 -0.016667 0.066667
-0.016667 0.016667 0.066667
0.016667 0.016667 0.066667
-0.016667 -0.016667 0.033333
0.016667 -0.016667 0.033333
-0.016667 0.016667 0.033333
0.016667 0.016667 0.033333


CELLS 27 243
8 19 27 56 34 0 1 12 11 
8 27 25 57 56 1 2 13 12 
8 25 18 54 57 2 3 4 13 
8 34 56 58 36 11 12 14 10 
8 56 57 59 58 12 13 15 14 
8 57 54 55 59 13 4 5 15 
8 36 58 43 28 10 14 8 9 
8 58 59 45 43 14 15 7 8 
8 59 55 37 45 15 5 6 7 
8 20 26 60 33 19 27 56 34 
8 26 24 61 60 27 25 57 56 
8 24 17 52 61 25 18 54 57 
8 33 60 62 35 34 56 58 36 
8 60 61 63 62 56 57 59 58 
8 61 52 53 63 57 54 55 59 
8 35 62 42 29 36 58 43 28 
8 62 63 44 42 58 59 45 43 
8 63 53 38 44 59 55 37 45 
8 21 22 51 32 20 26 60 33 
8 22 23 49 51 26 24 61 60 
8 23 16 47 49 24 17 52 61 
8 32 51 50 31 33 60 62 35 
8 51 49 48 50 60 61 63 62 
8 49 47 46 48 61 52 53 63 
8 31 50 41 30 35 62 42 29 
8 50 48 40 41 62 63 44 42 
8 48 46 39 40 63 53 38 44 


CELL TYPES 27
12
12
12
12
12
12
12
12
12
12
12
12
12
12
12
12
12
12
12
12
12
12
12
12
12
12
12


POINT_DATA 64
VECTORS displacement float
0.000000 0.000000 0.000000
0.000000 0.000000 0.000000
0.000000 0.000000 0.000000
0.000000 0.000000 0.000000
0.000000 0.000000 0.000000
0.000000 0.000000 0.000000
0.000000 0.000000 0.000000
0.000000 0.000000 0.000000
0.000000 0.000000 0.000000
0.000000 0.000000 0.000000
0.000000 0.000000 0.000000
0.000000 0.000000 0.000000
0.000000 0.000000 0.000000
0.000000 0.000000 0.000000
0.000000 0.000000 0.000000
0.000000 0.000000 0.000000
-0.000187 0.000187 -0.000870
-0.000076 0.000076 -0.000427
-0.000077 0.000077 -0.000185
0.000077 0.000077 -0.000185
0.000076 0.000076 -0.000427
0.000187 0.000187 -0.000870
0.000054 0.000121 -0.000545
-0.000054 0.000121 -0.000545
-0.000009 0.000071 -0.000342
-0.000019 0.000075 -0.000161
0.000009 0.000071 -0.000342
0.000019 0.000075 -0.000161
0.000077 -0.000077 -0.000185
0.000076 -0.000076 -0.000427
0.000187 -0.000187 -0.000870
0.000121 -0.000054 -0.000545
0.000121 0.000054 -0.000545
0.000071 0.000009 -0.000342
0.000075 0.000019 -0.000161
0.000071 -0.000009 -0.000342
0.000075 -0.000019 -0.000161
-0.000077 -0.000077 -0.000185
-0.000076 -0.000076 -0.000427
-0.000187 -0.000187 -0.000870
-0.000054 -0.000121 -0.000545
0.000054 -0.000121 -0.000545
0.000009 -0.000071 -0.000342
0.000019 -0.000075 -0.000161
-0.000009 -0.000071 -0.000342
-0.000019 -0.000075 -0.000161
-0.000121 -0.000054 -0.000545
-0.000121 0.000054 -0.000545
-0.000048 -0.000048 -0.000415
-0.000048 0.000048 -0.000415
0.000048 -0.000048 -0.000415
0.000048 0.000048 -0.000415
-0.000071 0.000009 -0.000342
-0.000071 -0.000009 -0.000342
-0.000075 0.000019 -0.000161
-0.000075 -0.000019 -0.000161
0.000018 0.000018 -0.000136
-0.000018 0.000018 -0.000136
0.000018 -0.000018 -0.000136
-0.000018 -0.000018 -0.000136
0.000018 0.000018 -0.000288
-0.000018 0.000018 -0.000288
0.000018 -0.000018 -0.000288
-0.000018 -0.000018 -0.000288
